ITEM: TIMESTEP
50000000
ITEM: NUMBER OF ATOMS
4096
ITEM: BOX BOUNDS pp pp pp
-41.3403034538 41.3403034538
-41.3403034538 41.3403034538
-0.1 0.1
ITEM: ATOMS id type x y z v_phi4 v_phi6
1525 1 -40.6552 -40.0894 0.0 0.881884 0.0974466
704 1 -31.2152 -35.8713 0.0 0.167903 0.356332
2177 1 -39.5131 -40.4618 0.0 0.234885 0.435549
3541 1 -37.3568 -40.3677 0.0 0.587209 0.323315
635 1 -31.5634 -20.8928 0.0 0.974383 0.375904
3654 1 -36.3984 -40.7928 0.0 0.408417 0.602696
1367 1 -34.4021 -40.2518 0.0 0.843074 0.0298577
1069 1 -33.3428 -40.8316 0.0 0.34881 0.381069
3203 1 -31.4714 -40.7459 0.0 0.619281 0.563498
3044 1 -32.5052 -40.0476 0.0 0.512344 0.371994
566 1 -40.3971 -38.871 0.0 0.389722 0.350841
1154 1 -38.6488 -39.7217 0.0 0.638399 0.560604
3096 1 -39.2713 -38.6825 0.0 0.352095 0.478803
2718 1 -37.3715 -38.9534 0.0 0.582131 0.146579
4005 1 -35.6054 -39.9334 0.0 0.455335 0.260631
211 1 -36.2904 -38.9431 0.0 0.256741 0.244213
1885 1 -34.2753 -39.1516 0.0 0.504473 0.246946
1406 1 -33.014 -38.784 0.0 0.84231 0.38917
2221 1 -31.8616 -38.7865 0.0 0.701834 0.240764
2325 1 -41.1302 -37.7552 0.0 0.887389 0.419895
36 1 -37.8526 -37.8668 0.0 0.538373 0.338848
3325 1 -36.0216 -37.7059 0.0 0.904666 0.110087
1689 1 -34.9055 -38.2113 0.0 0.435335 0.0140055
144 1 -34.2468 -37.0879 0.0 0.703721 0.396328
410 1 -33.1926 -37.6832 0.0 0.0766883 0.236992
2056 1 -31.4845 -37.579 0.0 0.356705 0.461172
4073 1 -40.1306 -37.2115 0.0 0.508266 0.0951736
1006 1 -40.3531 -36.0465 0.0 0.411935 0.373001
2884 1 -38.8841 -37.3838 0.0 0.91082 0.182151
3374 1 -38.4928 -36.209 0.0 0.390758 0.398442
3707 1 -36.9372 -37.1936 0.0 0.527375 0.23701
2967 1 -37.3996 -35.9323 0.0 0.980519 0.0986969
875 1 -35.4319 -36.4716 0.0 0.513979 0.255091
2398 1 -34.209 -35.8054 0.0 0.603798 0.388677
1335 1 -33.0433 -35.8792 0.0 0.307587 0.268313
893 1 -32.2228 -36.7143 0.0 0.987357 0.336138
2421 1 -39.3482 -35.5328 0.0 0.405359 0.338153
398 1 -37.6811 -34.6752 0.0 0.314177 0.430738
30 1 -36.1762 -35.6139 0.0 0.215652 0.613535
4043 1 -35.7885 -34.4107 0.0 0.903883 0.161421
3716 1 -34.5416 -34.7296 0.0 0.36383 0.342832
549 1 -32.7205 -34.7003 0.0 0.509852 0.327576
786 1 -31.4914 -34.8013 0.0 0.71561 0.144756
2031 1 -40.0014 -34.1893 0.0 0.622103 0.104455
2869 1 -40.015 -32.9789 0.0 0.9128 0.162828
3698 1 -38.828 -34.3645 0.0 0.915631 0.164793
529 1 -38.6026 -33.1559 0.0 0.7852 0.350472
3757 1 -36.8677 -33.7721 0.0 0.497251 0.259518
3361 1 -35.4465 -33.2283 0.0 0.57868 0.512684
1363 1 -33.4721 -33.8722 0.0 0.993605 0.0439079
2158 1 -32.4469 -33.0734 0.0 0.233039 0.372274
1276 1 -31.3912 -33.5352 0.0 0.701418 0.219383
1699 1 -41.2412 -32.6599 0.0 0.191522 0.465249
2961 1 -39.7422 -31.8377 0.0 0.340176 0.405056
391 1 -37.3724 -32.829 0.0 0.275199 0.726435
1909 1 -35.805 -32.1878 0.0 0.241428 0.505328
2156 1 -34.2248 -32.9682 0.0 0.183038 0.496213
835 1 -33.9288 -31.8649 0.0 0.879988 0.435276
3470 1 -32.587 -32.0345 0.0 0.625303 0.179687
2776 1 -31.3388 -31.4469 0.0 0.509489 0.292448
1508 1 -40.3759 -30.9281 0.0 0.632574 0.0891363
199 1 -38.5099 -31.64 0.0 0.931369 0.401247
788 1 -37.0994 -31.6961 0.0 0.897049 0.176053
2972 1 -36.8446 -30.6275 0.0 0.377644 0.735476
3943 1 -35.0286 -31.3204 0.0 0.583638 0.200669
2254 1 -35.6736 -30.3965 0.0 0.328865 0.443081
2480 1 -33.6926 -30.6465 0.0 0.410985 0.179184
2572 1 -32.4233 -30.6521 0.0 0.617602 0.299061
73 1 -41.0118 -29.1279 0.0 0.405766 0.288733
821 1 -38.4344 -30.5403 0.0 0.443251 0.245041
3060 1 -39.4324 -29.9988 0.0 0.539838 0.358786
1898 1 -37.5985 -29.5785 0.0 0.893576 0.136574
3075 1 -36.4463 -28.8698 0.0 0.450518 0.117772
760 1 -35.1942 -29.1306 0.0 0.929471 0.113143
597 1 -34.218 -29.6104 0.0 0.565223 0.326025
2062 1 -32.2902 -29.5221 0.0 0.200086 0.273132
1272 1 -39.8411 -28.9349 0.0 0.887653 0.412611
3880 1 -39.8724 -27.8088 0.0 0.42224 0.493227
1045 1 -38.4618 -28.655 0.0 0.408386 0.223068
4021 1 -36.6684 -27.7458 0.0 0.641532 0.101437
1726 1 -34.7088 -28.0238 0.0 0.329644 0.119833
898 1 -33.195 -28.7418 0.0 0.541636 0.294197
2300 1 -33.4152 -27.658 0.0 0.942899 0.135436
3038 1 -31.423 -28.3932 0.0 0.882146 0.272794
1057 1 -32.133 -27.4513 0.0 0.116153 0.506383
2451 1 -40.9362 -27.1604 0.0 0.697657 0.502468
3677 1 -38.8953 -26.9525 0.0 0.690061 0.199942
2741 1 -37.8228 -27.6024 0.0 0.644549 0.0415774
2455 1 -35.3561 -27.1888 0.0 0.610233 0.135144
3877 1 -34.7764 -26.2079 0.0 0.332691 0.21975
284 1 -33.4687 -26.3196 0.0 0.67104 0.277575
2294 1 -31.8395 -26.3305 0.0 0.521282 0.17278
2821 1 -40.7224 -26.0625 0.0 0.506269 0.206919
383 1 -31.9461 -22.0195 0.0 0.431096 0.335854
2825 1 -39.5257 -25.8874 0.0 0.45091 0.0656544
1340 1 -37.6958 -26.2977 0.0 0.616821 0.110529
4067 1 -38.0941 -25.1872 0.0 0.363222 0.537091
1083 1 -36.4851 -26.1983 0.0 0.442565 0.384239
226 1 -36.1709 -25.2646 0.0 0.387971 0.658458
830 1 -34.9716 -25.06 0.0 0.598245 0.396835
2676 1 -32.9742 -25.4478 0.0 0.634554 0.293625
1868 1 -31.8902 -24.9496 0.0 0.800995 0.304503
1888 1 -40.4196 -24.1357 0.0 0.332218 0.449858
339 1 -39.2748 -24.6559 0.0 0.891398 0.321598
1473 1 -37.2911 -24.3449 0.0 0.666279 0.148289
2091 1 -36.0063 -23.8744 0.0 0.696446 0.31026
3032 1 -33.9652 -24.4836 0.0 0.888832 0.109404
764 1 -33.1716 -23.6197 0.0 0.552783 0.329827
1025 1 -32.057 -23.8535 0.0 0.216667 0.20611
1107 1 -40.7209 -22.9714 0.0 0.639826 0.561449
695 1 -39.0593 -23.4646 0.0 0.581298 0.121964
492 1 -39.496 -22.3734 0.0 0.467021 0.268743
1187 1 -37.921 -23.2875 0.0 0.416148 0.516919
3418 1 -36.4547 -22.5803 0.0 0.444192 0.578624
173 1 -34.4381 -22.3085 0.0 0.679214 0.133297
2117 1 -34.9018 -23.3951 0.0 0.0372798 0.24704
3554 1 -33.1179 -22.4649 0.0 0.58803 0.147978
2269 1 -31.2382 -22.9605 0.0 0.885939 0.226513
3542 1 -40.7153 -21.574 0.0 0.561306 0.0901674
1015 1 -38.8318 -21.4937 0.0 0.44723 0.322277
1784 1 -37.598 -22.0082 0.0 0.942712 0.249363
223 1 -37.1015 -20.9757 0.0 0.301376 0.41885
50 1 -33.6007 -21.3522 0.0 0.773168 0.303057
1679 1 -35.5882 -21.8364 0.0 0.166918 0.657299
2157 1 -41.1203 -34.4804 0.0 0.335918 0.424781
3246 1 -35.6914 -20.735 0.0 0.970345 0.356161
493 1 -41.2542 -41.118 0.0 0.552933 0.331904
3669 1 -41.1328 -19.6692 0.0 0.881892 0.382854
138 1 -40.2006 -20.6424 0.0 0.434478 0.381583
3332 1 -39.0603 -20.3214 0.0 0.987542 0.366991
3776 1 -37.7734 -20.0843 0.0 0.296749 0.539017
838 1 -35.9923 -19.5723 0.0 0.466534 0.350034
1096 1 -34.4689 -20.4543 0.0 0.285023 0.35664
2366 1 -34.1714 -19.3186 0.0 0.773959 0.440904
476 1 -32.9396 -19.4234 0.0 0.491995 0.325193
380 1 -31.1894 -19.7792 0.0 0.428972 0.681389
399 1 -40.4338 -18.7525 0.0 0.641732 0.258258
2465 1 -39.2796 -19.0957 0.0 0.385048 0.353096
163 1 -38.593 -18.2468 0.0 0.378131 0.273315
1229 1 -37.3259 -19.1386 0.0 0.725775 0.301512
1390 1 -35.4539 -18.6042 0.0 0.364865 0.186671
3150 1 -34.0764 -18.1051 0.0 0.738376 0.609008
928 1 -31.969 -18.6359 0.0 0.890404 0.335004
67 1 -32.8156 -20.5112 0.0 0.371658 0.376774
771 1 -40.339 -17.5708 0.0 0.5264 0.0855054
3630 1 -39.2286 -17.1841 0.0 0.513283 0.509965
3895 1 -37.2338 -18.016 0.0 0.770249 0.27225
2653 1 -37.7763 -16.7187 0.0 0.584628 0.115593
988 1 -36.0835 -17.6882 0.0 0.414486 0.445053
762 1 -34.5488 -17.0528 0.0 0.477408 0.33075
102 1 -32.9032 -17.7989 0.0 0.187292 0.301556
1735 1 -32.486 -16.7515 0.0 0.77057 0.239034
423 1 -31.2026 -16.7498 0.0 0.673108 0.0678502
2042 1 -40.9828 -16.2114 0.0 0.593706 0.0446636
3961 1 -40.0932 -15.6649 0.0 0.288485 0.245735
225 1 -38.9285 -15.8956 0.0 0.657738 0.145226
3674 1 -36.9183 -16.1216 0.0 0.0928034 0.221884
789 1 -35.7229 -16.4635 0.0 0.933425 0.00477869
3810 1 -35.1728 -15.3709 0.0 0.375586 0.402642
792 1 -33.5919 -16.2377 0.0 0.420379 0.298739
728 1 -31.9793 -15.5964 0.0 0.587281 0.513979
3061 1 -40.0874 -14.4629 0.0 0.499602 0.407844
2437 1 -38.8996 -14.0676 0.0 0.470719 0.645941
524 1 -38.1818 -14.9233 0.0 0.314626 0.463866
1432 1 -37.0323 -14.8049 0.0 0.910394 0.0343538
1972 1 -35.9495 -14.5311 0.0 0.329104 0.530428
3269 1 -34.1854 -13.8944 0.0 0.408475 0.435684
2580 1 -34.0347 -15.2142 0.0 0.87656 0.0845376
3242 1 -32.8137 -14.7922 0.0 0.391641 0.432545
3889 1 -41.1873 -9.62483 0.0 0.371959 0.56649
1362 1 -40.8758 -13.3196 0.0 0.803265 0.522237
2584 1 -39.8866 -12.6349 0.0 0.381519 0.309485
3230 1 -38.7645 -12.8216 0.0 0.745136 0.131515
3171 1 -37.5193 -13.452 0.0 0.497112 0.240031
918 1 -36.5967 -12.8688 0.0 0.452898 0.224062
2863 1 -35.3833 -13.4881 0.0 0.928655 0.189428
1814 1 -33.368 -12.9401 0.0 0.678088 0.62674
1687 1 -41.3033 -2.01243 0.0 0.739109 0.251219
1396 1 -32.3524 -13.5851 0.0 0.733306 0.0584044
2690 1 -40.1889 -11.3765 0.0 0.617358 0.166472
1536 1 -38.1475 -11.7607 0.0 0.482196 0.367932
1003 1 -36.989 -11.6728 0.0 0.937532 0.166917
887 1 -35.7608 -11.349 0.0 0.347323 0.409869
375 1 -35.0591 -12.3238 0.0 0.42275 0.38654
1099 1 -33.8734 -11.8661 0.0 0.730511 0.136338
707 1 -32.471 -11.7754 0.0 0.511523 0.147713
1415 1 -31.4711 -12.4806 0.0 0.425699 0.136436
1668 1 -40.0001 -9.96759 0.0 0.579977 0.235708
1490 1 -31.5043 -0.400807 0.0 0.391767 0.250622
3916 1 -39.1003 -10.9093 0.0 0.743735 0.559858
1837 1 -38.2431 -9.85447 0.0 0.589855 0.170275
366 1 -37.2716 -10.5084 0.0 0.483306 0.272489
2173 1 -35.161 -10.4099 0.0 0.746186 0.215707
17 1 -33.8754 -10.7447 0.0 0.346853 0.401453
1183 1 -33.1068 -9.99915 0.0 0.854463 0.08785
2491 1 -32.03 -10.8416 0.0 0.362027 0.252322
2079 1 -32.4279 -1.32853 0.0 0.930727 0.397637
252 1 -39.5715 -9.01019 0.0 0.137697 0.449358
1846 1 -38.2121 -8.78618 0.0 0.945286 0.219449
1195 1 -36.8489 -8.54567 0.0 0.457145 0.246941
3657 1 -36.399 -9.69188 0.0 0.449585 0.209925
1319 1 -34.9981 -9.16778 0.0 0.744897 0.187675
2700 1 -33.8179 -8.92854 0.0 0.351478 0.498913
3274 1 -32.0351 -9.30241 0.0 0.582057 0.590515
3501 1 -40.1756 -7.9696 0.0 0.711238 0.531507
3208 1 -41.1056 -6.95502 0.0 0.404863 0.423312
1960 1 -39.5122 -7.21899 0.0 0.655402 0.145658
1194 1 -38.2775 -7.65446 0.0 0.464896 0.642122
1505 1 -36.2974 -7.47616 0.0 0.855616 0.405794
1918 1 -35.3465 -8.02785 0.0 0.382771 0.384934
1400 1 -34.3581 -7.1466 0.0 0.665449 0.0748583
3598 1 -33.4415 -7.82596 0.0 0.830003 0.541418
595 1 -31.142 -7.30841 0.0 0.950559 0.13416
1615 1 -32.2452 -8.10762 0.0 0.375127 0.562393
4036 1 -40.6911 -5.88576 0.0 0.766841 0.56568
2710 1 -39.2914 -6.03673 0.0 0.422073 0.48974
2608 1 -38.1944 -5.77488 0.0 0.412306 0.68163
2647 1 -37.5321 -6.79471 0.0 0.435578 0.315249
3950 1 -36.0888 -6.35852 0.0 0.501805 0.49581
628 1 -34.8728 -6.08242 0.0 0.670128 0.210475
208 1 -32.9459 -6.53605 0.0 0.404263 0.433612
3162 1 -31.87 -6.25427 0.0 0.383838 0.352671
2796 1 -40.1209 -4.71948 0.0 0.483852 0.703927
1402 1 -39.0908 -4.37785 0.0 0.347312 0.244871
3046 1 -37.8563 -4.70832 0.0 0.875091 0.175989
1648 1 -36.7188 -5.42557 0.0 0.443588 0.300995
2220 1 -36.0047 -4.60894 0.0 0.210411 0.117334
2777 1 -34.7753 -4.70974 0.0 0.568076 0.12739
2021 1 -33.629 -5.47256 0.0 0.703277 0.0518283
450 1 -32.8308 -4.69427 0.0 0.226669 0.416224
2949 1 -31.6478 -5.00856 0.0 0.754581 0.19116
1618 1 -40.8044 -3.81087 0.0 0.287485 0.419891
2230 1 -40.3117 -2.81355 0.0 0.791551 0.267909
2809 1 -39.0764 -3.12326 0.0 0.482874 0.4855
439 1 -37.2814 -3.65636 0.0 0.469427 0.391776
1785 1 -36.1069 -3.25056 0.0 0.773489 0.588728
1448 1 -34.1647 -3.66737 0.0 0.478379 0.281522
146 1 -35.0785 -2.98728 0.0 0.246042 0.230365
1734 1 -33.0274 -3.44403 0.0 0.969379 0.0807308
215 1 -31.8326 -3.28805 0.0 0.448003 0.243725
839 1 -39.5295 -1.70063 0.0 0.481906 0.196752
3413 1 -38.0668 -2.62731 0.0 0.826526 0.368732
327 1 -36.956 -1.90174 0.0 0.895059 0.175114
2441 1 -35.8322 -1.56049 0.0 0.389687 0.274649
979 1 -34.4905 -1.81588 0.0 0.912837 0.192194
205 1 -33.404 -2.19786 0.0 0.260308 0.375383
2704 1 -31.5245 -2.22789 0.0 0.259295 0.475786
1595 1 -40.4142 -0.914377 0.0 0.511103 0.239216
528 1 -38.4387 -1.18199 0.0 0.87779 0.59587
708 1 -37.4818 -0.70286 0.0 0.662278 0.511253
518 1 -35.6071 -0.372452 0.0 0.656682 0.179019
2454 1 -34.1887 -0.579153 0.0 0.583583 0.425551
3120 1 -32.9991 -0.412172 0.0 0.531348 0.607934
3069 1 -41.3594 -8.38116 0.0 0.711082 0.268374
1754 1 -41.2244 -11.2646 0.0 0.415074 0.289753
3521 1 -31.0209 -13.8267 0.0 0.68825 0.19313
54 1 -31.0239 -15.0448 0.0 0.321322 0.10686
323 1 -39.8739 0.148399 0.0 0.213811 0.29996
3844 1 -40.961 2.97818 0.0 0.316877 0.609642
967 1 -32.1339 19.8201 0.0 0.559703 0.321967
276 1 -37.9675 0.9775 0.0 0.559711 0.210764
2810 1 -36.8247 1.30858 0.0 0.980438 0.028411
605 1 -31.1333 8.4519 0.0 0.94921 0.0626019
421 1 -34.6918 0.696129 0.0 0.662268 0.237958
1149 1 -32.7634 0.929784 0.0 0.857081 0.00816407
1620 1 -33.7868 1.25972 0.0 0.141684 0.390622
1714 1 -31.6026 0.934395 0.0 0.723122 0.553837
432 1 -40.0438 1.31937 0.0 0.665991 0.259803
2371 1 -38.7771 1.88878 0.0 0.734435 0.45886
1030 1 -37.0485 2.54389 0.0 0.233982 0.447751
2723 1 -35.6734 1.49594 0.0 0.414059 0.425562
2522 1 -35.2168 2.56685 0.0 0.471103 0.372514
2125 1 -34.1162 2.6465 0.0 0.917097 0.491219
1776 1 -32.7933 2.5696 0.0 0.900258 0.387922
1775 1 -31.6372 2.35579 0.0 0.546555 0.286568
3607 1 -39.8002 2.73299 0.0 0.701247 0.227672
3031 1 -39.3722 3.82636 0.0 0.306048 0.531071
281 1 -38.0175 2.8519 0.0 0.360935 0.395975
3200 1 -36.1582 3.33602 0.0 0.953166 0.0184957
3248 1 -34.2104 3.96293 0.0 0.670477 0.531523
23 1 -35.3359 4.29332 0.0 0.351198 0.541116
3571 1 -32.9555 3.82546 0.0 0.651051 0.524676
3351 1 -31.0851 3.38862 0.0 0.3473 0.60187
3306 1 -31.8302 4.29769 0.0 0.425758 0.412883
638 1 -40.1252 4.69229 0.0 0.341556 0.486973
772 1 -38.3779 5.37302 0.0 0.413961 0.19542
3474 1 -38.2679 4.10039 0.0 0.974003 0.0494988
2030 1 -37.0076 4.31456 0.0 0.379406 0.579626
1864 1 -35.5471 5.55723 0.0 0.915637 0.427174
2493 1 -36.7591 5.53036 0.0 0.437081 0.545534
3557 1 -33.5605 5.13482 0.0 0.53962 0.15274
4052 1 -31.4319 5.39154 0.0 0.944234 0.362979
1962 1 -41.1802 6.14313 0.0 0.488908 0.153554
3276 1 -39.7542 5.65882 0.0 0.964533 0.244931
3570 1 -37.647 6.24947 0.0 0.599033 0.293462
3321 1 -35.8586 6.87797 0.0 0.502051 0.131603
986 1 -34.4259 5.90991 0.0 0.367617 0.469144
2859 1 -34.0375 7.02403 0.0 0.593677 0.405741
87 1 -32.521 5.71271 0.0 0.398407 0.277747
3431 1 -32.692 6.92209 0.0 0.690436 0.303579
2150 1 -38.6614 0.116362 0.0 0.139317 0.232174
794 1 -40.1324 7.61398 0.0 0.364099 0.373076
425 1 -39.3274 6.75933 0.0 0.464657 0.463844
847 1 -37.9952 7.32608 0.0 0.921298 0.121179
1807 1 -36.7007 7.52297 0.0 0.108197 0.107529
1382 1 -34.9558 7.7703 0.0 0.690899 0.365686
3010 1 -33.2129 8.20793 0.0 0.669254 0.0513792
1917 1 -31.6884 7.39367 0.0 0.448468 0.315148
362 1 -40.8728 9.21365 0.0 0.216422 0.41804
2711 1 -39.6061 8.73127 0.0 0.9482 0.418515
3161 1 -38.461 8.45346 0.0 0.361064 0.420531
3714 1 -37.4712 9.34108 0.0 0.694649 0.453718
2481 1 -36.7219 8.68599 0.0 0.487147 0.21686
3109 1 -35.4501 8.80336 0.0 0.862402 0.212428
3184 1 -34.1374 9.06756 0.0 0.371752 0.485187
1224 1 -32.3197 8.89167 0.0 0.292784 0.522968
3457 1 -41.1031 10.6056 0.0 0.895036 0.194124
3804 1 -40.0153 10.7256 0.0 0.488564 0.368477
3675 1 -39.0538 9.92599 0.0 0.31468 0.212684
3861 1 -37.9542 10.3885 0.0 0.833014 0.0905383
3244 1 -36.7475 10.4517 0.0 0.651828 0.21682
1924 1 -35.6503 10.1099 0.0 0.201743 0.529571
828 1 -34.6895 10.9698 0.0 0.839607 0.0540004
4022 1 -33.7569 10.0196 0.0 0.44002 0.467085
1560 1 -32.5297 10.0514 0.0 0.655287 0.142206
2383 1 -31.3243 10.679 0.0 0.694554 0.0433317
3339 1 -41.3154 11.8948 0.0 0.144642 0.216167
3272 1 -39.3951 11.838 0.0 0.620344 0.294162
2732 1 -38.3362 11.7245 0.0 0.374005 0.370759
746 1 -36.4229 11.5851 0.0 0.297865 0.264425
2490 1 -35.2909 12.0375 0.0 0.84569 0.0881275
1449 1 -33.4213 11.5551 0.0 0.479557 0.315415
2420 1 -32.3422 11.6686 0.0 0.368391 0.416891
3596 1 -40.3042 12.6055 0.0 0.859928 0.191135
700 1 -40.8793 13.6107 0.0 0.454323 0.423386
1312 1 -38.9877 13.4342 0.0 0.18119 0.191081
3969 1 -37.2395 12.3256 0.0 0.713545 0.250364
2824 1 -37.886 13.36 0.0 0.456639 0.522072
3582 1 -36.4341 13.5192 0.0 0.482984 0.200134
2497 1 -35.4409 13.2003 0.0 0.273478 0.568143
2632 1 -33.9762 12.6345 0.0 0.847983 0.285835
321 1 -32.9998 13.4549 0.0 0.478486 0.758086
2908 1 -31.9301 12.822 0.0 0.659113 0.0664444
2055 1 -40.7228 14.978 0.0 0.857246 0.0537019
2386 1 -39.521 14.3983 0.0 0.589999 0.365223
2276 1 -38.6277 15.211 0.0 0.462366 0.384899
2772 1 -37.5604 14.6812 0.0 0.235112 0.277835
783 1 -36.4378 14.9398 0.0 0.93181 0.249081
562 1 -35.244 14.9411 0.0 0.333168 0.431969
2708 1 -34.417 14.0198 0.0 0.80398 0.261271
3490 1 -33.3307 14.743 0.0 0.580533 0.41418
1374 1 -41.1299 1.31238 0.0 0.210799 0.560833
3503 1 -31.9988 14.5874 0.0 0.608345 0.356817
2382 1 -40.2952 16.0645 0.0 0.321257 0.370195
3827 1 -39.0462 16.3792 0.0 0.921761 0.134561
2896 1 -37.7639 16.4814 0.0 0.595054 0.0423985
3756 1 -36.5759 16.1305 0.0 0.19506 0.250038
386 1 -35.6599 16.8581 0.0 0.853536 0.0810462
1836 1 -34.6909 16.0387 0.0 0.575439 0.33882
3273 1 -33.5878 15.8737 0.0 0.441295 0.288328
3901 1 -31.725 15.638 0.0 0.298431 0.446419
4001 1 -41.0781 16.9812 0.0 0.762251 0.117993
2532 1 -39.239 17.6654 0.0 0.368289 0.342936
451 1 -37.5637 17.608 0.0 0.409284 0.611163
811 1 -36.398 17.953 0.0 0.415342 0.594944
599 1 -34.5443 17.4535 0.0 0.657289 0.197001
2996 1 -33.3411 17.4822 0.0 0.437789 0.638043
3073 1 -32.5102 16.5274 0.0 0.898291 0.190825
1642 1 -31.6926 17.495 0.0 0.460781 0.262073
2948 1 -40.3371 17.9139 0.0 0.41109 0.118488
2164 1 -40.2847 19.4016 0.0 0.684527 0.169214
2643 1 -38.2396 18.5971 0.0 0.947993 0.407879
3447 1 -37.2571 19.4824 0.0 0.268232 0.3538
3395 1 -35.9781 19.0053 0.0 0.992594 0.0537435
1746 1 -34.7324 18.5968 0.0 0.294474 0.341949
3479 1 -33.8406 19.3209 0.0 0.590969 0.158051
753 1 -33.0663 18.5891 0.0 0.328946 0.488379
3487 1 -31.7563 18.6485 0.0 0.840852 0.105874
2873 1 -40.64 20.4826 0.0 0.385553 0.295821
3041 1 -38.7264 20.604 0.0 0.71275 0.358008
619 1 -39.1117 19.4024 0.0 0.474815 0.524671
2426 1 -41.2106 7.27572 0.0 0.81051 0.0642672
909 1 -35.5214 20.0895 0.0 0.475231 0.382988
2986 1 -34.4837 20.5593 0.0 0.736728 0.14738
575 1 -33.284 20.5708 0.0 0.67683 0.307639
2747 1 -31.3474 20.6261 0.0 0.206576 0.442947
1115 1 -41.2244 4.15982 0.0 0.932012 0.300324
609 1 -37.4898 20.5524 0.0 0.776732 0.438851
1040 1 -36.6093 0.0126875 0.0 0.255623 0.438461
3285 1 -39.7383 21.1669 0.0 0.369043 0.117427
2524 1 -38.0074 21.7976 0.0 0.611234 0.142414
664 1 -36.3222 21.0068 0.0 0.397605 0.460937
3063 1 -35.9471 22.0233 0.0 0.926213 0.0919886
940 1 -34.7257 21.7935 0.0 0.436473 0.367972
1004 1 -32.8629 21.701 0.0 0.33974 0.357961
1531 1 -31.5847 21.7802 0.0 0.941413 0.14495
1697 1 -31.2533 36.7105 0.0 0.934543 0.0656103
3590 1 -40.1849 22.5106 0.0 0.889353 0.0676241
3549 1 -38.9675 22.5705 0.0 0.539748 0.404036
3091 1 -37.1118 22.5866 0.0 0.171011 0.419747
3085 1 -35.4757 23.1949 0.0 0.483431 0.272264
1403 1 -33.6826 22.4656 0.0 0.805359 0.450704
210 1 -31.7111 22.9536 0.0 0.503923 0.365817
2854 1 -40.2557 23.7642 0.0 0.500653 0.369706
866 1 -39.2891 24.3542 0.0 0.576193 0.547364
639 1 -38.5127 23.6558 0.0 0.41553 0.502456
2389 1 -37.2373 23.7874 0.0 0.915246 0.221654
2460 1 -36.0353 24.2249 0.0 0.357673 0.218283
164 1 -34.249 23.6587 0.0 0.553641 0.093804
3900 1 -34.2273 24.7139 0.0 0.533218 0.149167
397 1 -32.7478 23.4411 0.0 0.503439 0.311088
325 1 -32.6482 24.7098 0.0 0.42715 0.467331
3902 1 -31.8593 40.8985 0.0 0.284206 0.462296
2343 1 -40.252 25.3447 0.0 0.455196 0.257008
2081 1 -38.918 25.4613 0.0 0.78482 0.256507
931 1 -37.5461 24.9999 0.0 0.346409 0.560834
2767 1 -36.8326 25.8266 0.0 0.375093 0.368724
1860 1 -35.395 25.0938 0.0 0.633627 0.32838
3382 1 -33.4992 25.6744 0.0 0.920115 0.248385
204 1 -31.664 24.96 0.0 0.419259 0.390584
2693 1 -31.2912 26.1852 0.0 0.941707 0.143625
2159 1 -40.111 26.5393 0.0 0.22519 0.402606
3193 1 -38.6039 26.5592 0.0 0.598889 0.429447
1908 1 -37.3965 26.7777 0.0 0.637866 0.494068
1783 1 -35.3773 26.2612 0.0 0.685416 0.565842
3831 1 -36.0625 27.3124 0.0 0.589321 0.0632566
2742 1 -34.2798 26.6369 0.0 0.206208 0.45964
3149 1 -32.496 26.4718 0.0 0.286381 0.457066
3700 1 -41.0251 27.2142 0.0 0.728715 0.192319
1891 1 -40.0725 28.1773 0.0 0.381637 0.347823
3794 1 -39.0162 27.5994 0.0 0.490198 0.207411
473 1 -38.423 28.6519 0.0 0.00205047 0.216135
3553 1 -37.3112 28.0726 0.0 0.740614 0.548871
608 1 -35.2643 28.1446 0.0 0.295776 0.357858
3310 1 -32.6705 27.5388 0.0 0.332772 0.324543
2346 1 -33.9971 27.744 0.0 0.971283 0.040131
3145 1 -33.6178 28.9923 0.0 0.358151 0.612339
1626 1 -31.7284 28.2357 0.0 0.950025 0.0496614
348 1 -39.9993 29.4441 0.0 0.695482 0.114422
2395 1 -38.75 29.7128 0.0 0.686654 0.307737
1987 1 -37.3223 30.0406 0.0 0.473412 0.321812
3449 1 -36.719 29.191 0.0 0.233707 0.519063
2436 1 -35.5129 29.2799 0.0 0.731465 0.358823
3028 1 -34.2684 29.9333 0.0 0.712574 0.366343
1683 1 -32.4584 29.2973 0.0 0.34853 0.459194
912 1 -40.4836 30.6953 0.0 0.659642 0.335168
2111 1 -39.5969 31.2764 0.0 0.305417 0.34234
1684 1 -38.4534 30.9021 0.0 0.799032 0.123093
345 1 -36.6188 30.9823 0.0 0.371135 0.233308
627 1 -35.4744 30.6881 0.0 0.638281 0.389549
2564 1 -34.8692 31.6621 0.0 0.430816 0.141531
159 1 -33.4234 30.7646 0.0 0.318626 0.448964
4078 1 -32.274 30.3749 0.0 0.721863 0.442004
2575 1 -31.4335 31.5598 0.0 0.411974 0.432058
4050 1 -39.7882 32.6472 0.0 0.98213 0.0894943
653 1 -41.1212 32.5052 0.0 0.353111 0.0823577
1976 1 -38.5376 32.8506 0.0 0.199682 0.296722
1178 1 -37.8794 31.8891 0.0 0.412195 0.368487
1309 1 -36.7915 32.2126 0.0 0.905763 0.388924
1902 1 -35.5429 32.5049 0.0 0.47397 0.282302
68 1 -33.5297 32.057 0.0 0.907242 0.132607
693 1 -32.4013 32.0737 0.0 0.587381 0.0465134
3797 1 -41.1779 34.146 0.0 0.284738 0.488168
294 1 -40.038 33.6904 0.0 0.372635 0.688219
3777 1 -38.1134 33.7896 0.0 0.74213 0.102274
3134 1 -36.7876 33.4853 0.0 0.463052 0.351667
1977 1 -36.1585 34.3571 0.0 0.555149 0.237157
1994 1 -34.8766 33.5019 0.0 0.479622 0.413099
1399 1 -33.7871 33.176 0.0 0.253723 0.51897
83 1 -32.9389 34.0871 0.0 0.843835 0.249316
509 1 -31.9214 33.2604 0.0 0.473863 0.290218
1587 1 -41.2467 35.2241 0.0 0.6131 0.0975282
2456 1 -40.1057 35.554 0.0 0.37091 0.514372
1137 1 -39.3573 34.578 0.0 0.521748 0.453597
2673 1 -38.017 35.0216 0.0 0.755894 0.579228
290 1 -36.7992 35.3573 0.0 0.522403 0.266214
3883 1 -35.0208 34.8341 0.0 0.866796 0.432988
2165 1 -33.8627 34.9041 0.0 0.282529 0.291769
2567 1 -31.8414 34.72 0.0 0.682196 0.35657
2671 1 -40.9131 37.1078 0.0 0.392576 0.40572
3228 1 -39.7674 36.6834 0.0 0.975419 0.341167
3512 1 -38.5179 36.1835 0.0 0.422088 0.31132
3319 1 -37.6448 36.8641 0.0 0.405207 0.464851
340 1 -36.5942 36.6338 0.0 0.895705 0.361348
2096 1 -35.3256 36.033 0.0 0.333286 0.346426
877 1 -34.5074 36.7581 0.0 0.509523 0.364002
2318 1 -33.3724 35.9392 0.0 0.564711 0.164747
3965 1 -32.2532 35.9082 0.0 0.464486 0.0548027
1371 1 -38.1481 41.3295 0.0 0.520984 0.0919758
3396 1 -41.1869 38.3655 0.0 0.875981 0.348685
2008 1 -39.2159 37.8362 0.0 0.285201 0.37263
2146 1 -38.05 38.0691 0.0 0.797227 0.133329
8 1 -36.1493 37.7525 0.0 0.291836 0.391393
255 1 -34.9126 37.9679 0.0 0.804646 0.189655
1763 1 -33.2517 37.2022 0.0 0.772232 0.414576
2798 1 -33.5749 38.4864 0.0 0.215459 0.419237
741 1 -32.0221 37.6254 0.0 0.278087 0.566093
3507 1 -41.1747 39.6957 0.0 0.413279 0.124588
2957 1 -40.0228 38.7756 0.0 0.663229 0.186474
1182 1 -39.2532 39.6725 0.0 0.360376 0.434385
1011 1 -38.0909 39.3934 0.0 0.606631 0.397454
1076 1 -36.8469 38.6915 0.0 0.667572 0.0879344
3009 1 -36.0179 39.5708 0.0 0.35929 0.593298
3442 1 -34.86 39.1697 0.0 0.745723 0.468859
3051 1 -32.8102 39.4045 0.0 0.440304 0.368504
442 1 -31.7555 38.9023 0.0 0.738266 0.300293
2738 1 -40.4878 40.6506 0.0 0.498921 0.332557
3427 1 -39.2966 40.9162 0.0 0.903597 0.273357
485 1 -37.523 40.3121 0.0 0.270874 0.208487
1566 1 -36.2185 40.7145 0.0 0.952415 0.157693
1060 1 -34.2839 40.1909 0.0 0.378202 0.18697
3354 1 -34.9083 41.1655 0.0 0.160466 0.26166
1021 1 -33.0591 40.7042 0.0 0.934952 0.102829
3591 1 -31.0413 40.0411 0.0 0.587487 0.129124
3100 1 -41.3277 29.621 0.0 0.661296 0.185827
3802 1 -30.2001 -40.7435 0.0 0.758578 0.296501
1047 1 -29.0522 -40.2794 0.0 0.400168 0.443848
1035 1 -27.3301 -40.9995 0.0 0.963616 0.154455
2232 1 -26.102 -40.7172 0.0 0.437925 0.456034
1072 1 -24.3097 -41.0475 0.0 0.578344 0.333554
2326 1 -22.8362 -21.2108 0.0 0.172092 0.487497
3949 1 -22.6203 -40.1988 0.0 0.357735 0.157198
1540 1 -21.187 -40.9683 0.0 0.421414 0.525798
60 1 -30.6798 -39.4723 0.0 0.535095 0.240649
107 1 -29.8578 -38.5817 0.0 0.370622 0.349044
2927 1 -28.728 -39.305 0.0 0.908744 0.158672
2317 1 -27.4774 -39.7404 0.0 0.181767 0.350551
244 1 -26.6315 -38.9645 0.0 0.726637 0.389999
3573 1 -25.5108 -39.7586 0.0 0.484666 0.252518
2087 1 -24.3758 -39.7434 0.0 0.468888 0.063088
3082 1 -23.4018 -39.1242 0.0 0.953236 0.141152
1343 1 -21.4692 -39.7948 0.0 0.844192 0.0839967
2508 1 -21.427 -38.7654 0.0 0.559188 0.55263
280 1 -30.27 -37.581 0.0 0.636459 0.326573
2520 1 -28.3773 -38.1812 0.0 0.495043 0.701975
3105 1 -27.2364 -37.9261 0.0 0.41447 0.520628
637 1 -25.3183 -38.304 0.0 0.661636 0.391277
1315 1 -24.0235 -37.9796 0.0 0.415474 0.233057
2475 1 -22.5051 -38.3596 0.0 0.331543 0.565316
1801 1 -30.1145 -36.2795 0.0 0.671292 0.507382
2190 1 -21.1578 -21.3941 0.0 0.462087 0.331624
1786 1 -28.9545 -37.0899 0.0 0.644062 0.13046
172 1 -28.0094 -36.3803 0.0 0.247366 0.286452
941 1 -26.8568 -36.8945 0.0 0.984002 0.0784801
2889 1 -25.6735 -37.2576 0.0 0.0996606 0.526725
1934 1 -23.8848 -36.8019 0.0 0.544259 0.373199
1843 1 -25.0645 -36.3708 0.0 0.698268 0.245858
2186 1 -22.6266 -37.0605 0.0 0.823949 0.231243
314 1 -21.4144 -36.9403 0.0 0.216267 0.433088
2598 1 -20.8826 -35.7522 0.0 0.932955 0.0972014
2769 1 -30.2503 -34.3484 0.0 0.581694 0.470502
2470 1 -29.3565 -35.2729 0.0 0.430415 0.347761
3662 1 -28.1402 -35.2129 0.0 0.862607 0.237701
1358 1 -27.0971 -34.8247 0.0 0.267381 0.265107
1569 1 -26.3099 -35.5438 0.0 0.380312 0.431395
3779 1 -24.9452 -35.2118 0.0 0.757501 0.544851
3430 1 -23.8383 -35.1159 0.0 0.38061 0.199749
3167 1 -22.8853 -35.8613 0.0 0.563727 0.342853
1752 1 -22.019 -35.2332 0.0 0.270982 0.602552
3357 1 -29.5187 -33.2433 0.0 0.719205 0.231624
732 1 -28.601 -33.8532 0.0 0.408646 0.256236
1601 1 -26.5648 -33.7196 0.0 0.816279 0.0951334
2440 1 -25.4437 -33.9784 0.0 0.117155 0.212241
2906 1 -24.4126 -33.3028 0.0 0.765215 0.144284
3578 1 -23.3327 -34.0147 0.0 0.616286 0.127708
2267 1 -22.1502 -34.1397 0.0 0.409575 0.391199
585 1 -21.2215 -33.3487 0.0 0.893465 0.115265
3750 1 -30.7862 -32.5113 0.0 0.33178 0.062508
2023 1 -29.384 -31.9571 0.0 0.643302 0.260054
3839 1 -28.1317 -32.0951 0.0 0.195726 0.32273
1471 1 -27.6331 -33.1453 0.0 0.625649 0.389316
2674 1 -26.3983 -32.3285 0.0 0.569257 0.143278
1759 1 -25.2271 -32.1346 0.0 0.252363 0.323423
1808 1 -23.2983 -32.6436 0.0 0.704581 0.13454
3400 1 -22.1494 -32.4695 0.0 0.209716 0.311599
3874 1 -30.7699 -30.5359 0.0 0.484973 0.182434
3692 1 -29.6426 -31.0311 0.0 0.0535904 0.08932
747 1 -27.7797 -30.9357 0.0 0.677097 0.341686
796 1 -26.6956 -31.2732 0.0 0.310915 0.551193
2409 1 -25.7758 -30.4551 0.0 0.698963 0.524002
915 1 -24.6817 -31.1074 0.0 0.770867 0.0845495
2379 1 -23.5838 -31.5402 0.0 0.385125 0.499737
3709 1 -22.7207 -30.5637 0.0 0.73832 0.0945087
557 1 -21.6513 -31.4046 0.0 0.619791 0.0806724
2837 1 -21.5463 -30.052 0.0 0.660242 0.22568
3668 1 -30.7799 -29.3487 0.0 0.665934 0.609859
4030 1 -29.5108 -29.0974 0.0 0.324808 0.504341
1225 1 -28.8324 -29.9638 0.0 0.521844 0.644257
1265 1 -27.5643 -29.709 0.0 0.715971 0.169926
64 1 -26.4178 -29.3364 0.0 0.464602 0.353131
3108 1 -24.5693 -29.7291 0.0 0.585349 0.144095
1790 1 -23.4988 -29.7426 0.0 0.425837 0.309035
1965 1 -21.7984 -28.9334 0.0 0.418106 0.343796
1672 1 -30.414 -27.5936 0.0 0.299964 0.35723
3988 1 -29.1889 -27.9478 0.0 0.984387 0.0200857
2637 1 -27.9844 -28.4359 0.0 0.323599 0.387714
3177 1 -27.2129 -27.7055 0.0 0.308593 0.307862
1991 1 -26.0506 -28.2461 0.0 0.982176 0.337486
3870 1 -24.8286 -28.6586 0.0 0.288545 0.302137
2936 1 -24.0218 -27.893 0.0 0.511685 0.189544
11 1 -22.9332 -28.5151 0.0 0.964554 0.0458595
2161 1 -22.4962 -27.357 0.0 0.259737 0.404462
858 1 -20.8139 -28.3717 0.0 0.382899 0.444212
2283 1 -30.6538 -26.3677 0.0 0.809526 0.246306
130 1 -28.772 -26.7009 0.0 0.295591 0.336293
1456 1 -27.5837 -26.522 0.0 0.959816 0.0848542
4015 1 -25.6753 -27.1407 0.0 0.391544 0.695333
3220 1 -24.5232 -26.7793 0.0 0.951762 0.0765792
3226 1 -23.3094 -26.4983 0.0 0.404071 0.335721
3746 1 -21.4302 -27.0393 0.0 0.683607 0.233988
3511 1 -30.7133 -24.9235 0.0 0.324479 0.358034
258 1 -29.527 -25.9137 0.0 0.579 0.640402
1209 1 -28.9661 -24.8863 0.0 0.55457 0.213613
869 1 -27.8215 -25.2874 0.0 0.461844 0.293075
167 1 -26.396 -26.1358 0.0 0.298457 0.557336
3745 1 -25.9166 -25.0781 0.0 0.693007 0.247987
1081 1 -24.8184 -25.5509 0.0 0.305302 0.636775
579 1 -22.7113 -25.6443 0.0 0.364077 0.347683
1310 1 -21.5179 -25.7382 0.0 0.605864 0.270026
3142 1 -23.939 -21.3643 0.0 0.636885 0.0489826
1988 1 -30.219 -23.9425 0.0 0.491665 0.496073
2278 1 -29.0333 -23.5412 0.0 0.848708 0.468772
1346 1 -27.2042 -24.3716 0.0 0.397087 0.247062
385 1 -27.8074 -23.4017 0.0 0.290897 0.602788
1527 1 -25.9603 -23.918 0.0 0.879424 0.108088
2108 1 -23.9126 -24.814 0.0 0.751459 0.0382901
2542 1 -24.6102 -23.8282 0.0 0.316936 0.532772
1634 1 -22.7863 -24.2626 0.0 0.811925 0.133313
961 1 -21.6321 -24.166 0.0 0.224395 0.245193
3326 1 -30.1282 -22.3073 0.0 0.652652 0.157799
2489 1 -28.9551 -22.2725 0.0 0.122012 0.278282
1756 1 -27.245 -22.3733 0.0 0.80491 0.107451
2670 1 -26.0493 -22.7844 0.0 0.307807 0.357524
2621 1 -24.1651 -22.707 0.0 0.789413 0.113556
3355 1 -23.0638 -23.0267 0.0 0.32676 0.586158
3683 1 -21.1337 -23.2186 0.0 0.417831 0.354514
4066 1 -22.0787 -22.2655 0.0 0.96512 0.316523
1351 1 -30.2106 -21.1495 0.0 0.211081 0.299381
2612 1 -28.295 -21.4911 0.0 0.559826 0.233693
2092 1 -26.8868 -21.1806 0.0 0.591422 0.278565
763 1 -25.1722 -21.9814 0.0 0.654307 0.483078
2898 1 -25.6689 -20.8287 0.0 0.578757 0.259223
2812 1 -23.1574 -41.1757 0.0 0.648349 0.143281
1013 1 -28.3766 -41.1997 0.0 0.247544 0.507311
1423 1 -30.144 -19.3929 0.0 0.431186 0.482454
2139 1 -28.4006 -19.8488 0.0 0.533476 0.57805
2222 1 -29.2959 -20.5004 0.0 0.962051 0.0953987