ITEM: TIMESTEP
241005955
ITEM: NUMBER OF ATOMS
4000
ITEM: BOX BOUNDS pp pp pp
-4.0852974398951403e+01 4.0852974398951403e+01
-4.0852974398951403e+01 4.0852974398951403e+01
-1.0000000000000001e-01 1.0000000000000001e-01
ITEM: ATOMS id type x y z v_phi4 v_phi6 
3629 1 -40.6101 -39.6887 0 0.720478 0.077932 
2543 1 -38.7892 -40.3819 0 0.251156 0.527417 
971 1 -37.6078 -40.4624 0 0.709006 0.0938353 
2760 1 -36.2851 -40.0897 0 0.713382 0.0919191 
1183 1 -34.2334 -39.9466 0 0.793521 0.0172421 
978 1 -32.2591 -40.1375 0 0.287038 0.538376 
1813 1 -33.2535 -40.8363 0 0.675495 0.334162 
2881 1 -31.1853 -40.7639 0 0.957791 0.0783875 
910 1 -40.2654 -38.3828 0 0.737042 0.0620642 
867 1 -39.3012 -39.3226 0 0.72491 0.076131 
3769 1 -38.3247 -38.6495 0 0.251724 0.535768 
1770 1 -37.2556 -39.1654 0 0.756064 0.0423985 
314 1 -36.6047 -38.1771 0 0.25912 0.524092 
693 1 -35.3016 -39.4173 0 0.264748 0.536548 
100 1 -35.4179 -38.253 0 0.714144 0.0932294 
623 1 -33.6002 -38.9382 0 0.266805 0.507664 
1416 1 -32.4021 -39.0142 0 0.673149 0.12994 
1021 1 -31.0381 -38.6165 0 0.653957 0.335457 
3076 1 -39.6078 -37.3987 0 0.256133 0.529005 
1835 1 -38.4243 -37.476 0 0.726291 0.0730946 
2100 1 -37.11 -37.1171 0 0.713715 0.0915151 
3566 1 -35.0685 -36.9693 0 0.768895 0.0277398 
709 1 -34.0831 -37.8862 0 0.691766 0.118141 
2235 1 -33.1048 -37.2047 0 0.257082 0.53939 
715 1 -32.0314 -37.7488 0 0.817765 0.0510523 
1135 1 -31.4174 -36.7405 0 0.305472 0.476245 
11 1 -40.1183 -36.3406 0 0.711451 0.091229 
3898 1 -39.148 -35.6594 0 0.262961 0.537538 
3927 1 -38.0804 -36.1761 0 0.740249 0.0577343 
1361 1 -36.1395 -36.439 0 0.238454 0.537874 
3755 1 -34.4247 -35.9891 0 0.284477 0.509022 
1834 1 -33.2228 -36.052 0 0.723315 0.0761847 
161 1 -31.8634 -35.6762 0 0.630828 0.194068 
1018 1 -40.4351 -34.4284 0 0.232519 0.518208 
582 1 -39.2419 -34.4868 0 0.741207 0.0406768 
2506 1 -37.9217 -34.1301 0 0.694168 0.107695 
1358 1 -37.4217 -35.1995 0 0.22993 0.518695 
540 1 -36.2317 -35.2666 0 0.736462 0.0451309 
3316 1 -34.9112 -34.9146 0 0.69536 0.111174 
3775 1 -33.9629 -34.2455 0 0.285929 0.42738 
3532 1 -32.8916 -34.7914 0 0.747562 0.408963 
1865 1 -30.9162 -34.975 0 0.36124 0.495686 
143 1 -38.9116 -33.1964 0 0.727159 0.128357 
1962 1 -36.976 -33.4598 0 0.258203 0.548805 
3413 1 -35.891 -33.9739 0 0.722859 0.122304 
2532 1 -35.1815 -33.0273 0 0.331256 0.56106 
3655 1 -33.9504 -33.0158 0 0.979408 0.0281245 
1053 1 -32.7198 -32.8823 0 0.326293 0.430514 
571 1 -32.1298 -33.8671 0 0.422332 0.353809 
3444 1 -30.869 -33.7373 0 0.97369 0.0715537 
3767 1 -39.9993 -32.6847 0 0.262936 0.551887 
193 1 -40.0242 -31.4506 0 0.973655 0.355114 
1867 1 -38.2122 -32.2429 0 0.324532 0.56107 
897 1 -36.9943 -32.2267 0 0.972738 0.354369 
1013 1 -35.7646 -32.0326 0 0.378264 0.407044 
3920 1 -34.0673 -31.737 0 0.364457 0.390012 
417 1 -32.0363 -31.8381 0 0.996836 0.0329708 
2971 1 -30.9944 -32.5116 0 0.310547 0.447931 
3944 1 -40.1331 -30.1645 0 0.349016 0.412167 
1608 1 -38.7959 -31.2488 0 0.381787 0.404433 
2958 1 -38.0835 -30.1826 0 0.978619 0.0574501 
3054 1 -37.096 -30.9371 0 0.354679 0.412465 
2932 1 -36.1178 -30.368 0 0.288034 0.560853 
3704 1 -35.0409 -30.9675 0 0.973995 0.0712011 
336 1 -34.3665 -29.9347 0 0.307758 0.567776 
752 1 -33.0795 -31.1859 0 0.289065 0.515222 
846 1 -33.1235 -29.9538 0 0.983619 0.0649244 
2409 1 -31.3085 -30.8038 0 0.352003 0.401208 
810 1 -39.163 -29.5826 0 0.282387 0.568679 
565 1 -37.4193 -29.1404 0 0.299732 0.5637 
2229 1 -36.1851 -29.1352 0 0.982125 0.0520614 
2976 1 -34.95 -28.9663 0 0.351107 0.437781 
453 1 -33.2498 -28.6735 0 0.369896 0.388585 
3813 1 -31.8951 -29.8456 0 0.297528 0.525506 
3241 1 -31.2227 -28.781 0 0.995062 0.339877 
1381 1 -40.4745 -28.3898 0 0.308041 0.569491 
1559 1 -39.2413 -28.3463 0 0.989328 0.02336 
1190 1 -38.0039 -28.1777 0 0.345782 0.434255 
3429 1 -36.2879 -27.8507 0 0.341124 0.431936 
3246 1 -35.3127 -27.2891 0 0.267732 0.539319 
940 1 -34.2365 -27.893 0 0.974716 0.0851083 
1722 1 -32.2613 -28.1363 0 0.291102 0.5021 
3978 1 -40.3998 -26.3691 0 0.991623 0.340413 
2505 1 -39.3467 -27.0716 0 0.318205 0.588556 
1659 1 -38.3773 -26.4912 0 0.261743 0.576373 
828 1 -37.3081 -27.1093 0 0.98676 0.0671279 
2376 1 -36.5916 -26.0989 0 0.323068 0.462658 
2884 1 -35.3369 -26.0381 0 0.981901 0.0413056 
1738 1 -34.1268 -25.9094 0 0.298019 0.499809 
3024 1 -33.5363 -26.8878 0 0.319082 0.489624 
583 1 -32.294 -26.8919 0 0.97823 0.0390984 
631 1 -31.0806 -26.7874 0 0.289197 0.55515 
2266 1 -39.6681 -25.3566 0 0.368112 0.422123 
2975 1 -38.4021 -25.2412 0 0.984494 0.0656369 
1978 1 -37.1816 -25.1323 0 0.293507 0.487697 
3548 1 -35.5176 -24.7669 0 0.352665 0.417404 
1662 1 -33.5091 -24.8287 0 0.974069 0.0878918 
2211 1 -32.4644 -25.6048 0 0.364977 0.366481 
52 1 -31.4959 -25.0554 0 0.274648 0.522465 
3779 1 -40.2642 -24.3959 0 0.282589 0.548274 
178 1 -39.6796 -23.3175 0 0.972936 0.0466328 
1600 1 -38.5826 -23.9971 0 0.306914 0.451866 
2348 1 -37.6285 -23.3812 0 0.325899 0.598399 
3752 1 -36.5941 -24.0427 0 0.97191 0.0976997 
2728 1 -34.5634 -24.1779 0 0.304248 0.561146 
737 1 -32.7614 -23.8563 0 0.315132 0.470805 
2135 1 -31.491 -23.8138 0 0.98 0.0269047 
694 1 -40.71 -22.6417 0 0.315407 0.558795 
817 1 -38.9078 -22.3216 0 0.403254 0.345591 
2134 1 -37.6208 -22.137 0 0.974055 0.128059 
2863 1 -35.826 -23.0555 0 0.370142 0.413204 
3828 1 -36.3761 -22.0796 0 0.295872 0.504155 
529 1 -34.5352 -22.9377 0 0.97287 0.111667 
1731 1 -33.3089 -22.8581 0 0.314187 0.486535 
3840 1 -32.7018 -21.7762 0 0.97396 0.11049 
2600 1 -31.6594 -22.5506 0 0.3786 0.377715 
3084 1 -30.6899 -21.9904 0 0.2865 0.525326 
2219 1 -39.4854 -21.3638 0 0.295171 0.510724 
1624 1 -40.7291 -21.3992 0 0.995386 0.0148353 
3271 1 -37.7521 -20.9291 0 0.279232 0.583421 
1795 1 -35.7744 -20.9955 0 0.979558 0.100734 
2347 1 -34.7068 -21.7025 0 0.349462 0.441674 
3220 1 -33.7444 -21.1092 0 0.312503 0.561894 
3896 1 -30.6794 -20.7536 0 0.977726 0.0395943 
1904 1 -31.9526 -20.7994 0 0.306998 0.469272 
1100 1 -39.8341 -19.5838 0 0.376732 0.40707 
240 1 -40.8091 -20.1681 0 0.292454 0.430253 
3952 1 -38.0969 -19.2644 0 0.371014 0.387625 
3341 1 -38.838 -20.325 0 0.979699 0.0666332 
2373 1 -36.81 -19.0709 0 0.978291 0.115478 
3679 1 -36.7892 -20.3082 0 0.330844 0.48691 
2239 1 -35.012 -19.9898 0 0.354196 0.418229 
811 1 -33.7199 -19.8756 0 0.972046 0.111021 
1020 1 -32.4921 -19.7949 0 0.324802 0.588689 
3470 1 -30.8529 -19.4918 0 0.380723 0.368852 
77 1 -39.9505 -18.3341 0 0.992401 0.0364149 
1480 1 -38.6897 -18.3197 0 0.309458 0.544091 
2442 1 -36.9473 -17.8661 0 0.278605 0.583968 
1983 1 -35.5589 -19.0107 0 0.302968 0.50738 
533 1 -34.9695 -17.9224 0 0.978049 0.114 
1426 1 -33.9007 -18.6402 0 0.3562 0.427911 
200 1 -32.9436 -18.0471 0 0.309023 0.551902 
2669 1 -31.8948 -18.7099 0 0.971354 0.11736 
1903 1 -31.1555 -17.7321 0 0.304415 0.477839 
3028 1 -39.9927 -17.103 0 0.300753 0.535141 
128 1 -39.021 -16.5252 0 0.391699 0.385543 
1393 1 -38.0357 -17.2805 0 0.973535 0.0732444 
2060 1 -35.9906 -17.2394 0 0.331491 0.480228 
3776 1 -34.2184 -16.9177 0 0.347903 0.433731 
1719 1 -32.929 -16.815 0 0.973546 0.0963255 
3012 1 -31.7014 -16.7276 0 0.324168 0.597655 
879 1 -40.3959 -15.368 0 0.27744 0.544723 
1922 1 -39.1674 -15.2584 0 0.98508 0.326307 
3596 1 -37.9106 -15.2568 0 0.312506 0.561352 
338 1 -37.3079 -16.199 0 0.362355 0.401858 
1929 1 -36.024 -16.0017 0 0.979353 0.106788 
1543 1 -34.7722 -15.9373 0 0.30215 0.515702 
1445 1 -33.1178 -15.5759 0 0.360317 0.416291 
1800 1 -31.1101 -15.6431 0 0.969363 0.115473 
486 1 -39.2242 -14.0245 0 0.282094 0.533994 
1994 1 -37.2638 -14.2112 0 0.972737 0.0836002 
3011 1 -36.1715 -14.797 0 0.282213 0.510449 
252 1 -35.2164 -14.1691 0 0.331042 0.482345 
452 1 -34.19 -14.8487 0 0.975316 0.118656 
1134 1 -33.4392 -13.8514 0 0.349036 0.436687 
868 1 -32.1494 -13.7521 0 0.973611 0.0912163 
1620 1 -32.1636 -14.9835 0 0.307191 0.548237 
38 1 -40.293 -13.3975 0 0.991658 0.0734096 
2281 1 -39.6049 -12.3401 0 0.332995 0.442656 
2910 1 -38.2494 -13.4581 0 0.372395 0.417546 
3459 1 -36.5314 -13.1325 0 0.360181 0.393609 
2880 1 -35.2444 -12.9315 0 0.976823 0.0194105 
3734 1 -33.9934 -12.8693 0 0.301576 0.514333 
767 1 -32.3384 -12.5134 0 0.359575 0.415621 
51 1 -30.9208 -13.6657 0 0.321262 0.596453 
661 1 -40.2069 -11.3827 0 0.316665 0.564707 
2080 1 -38.3695 -12.1776 0 0.979812 0.0909783 
2076 1 -38.451 -10.9492 0 0.298677 0.477478 
2153 1 -37.1239 -12.186 0 0.298949 0.553151 
641 1 -36.4864 -11.1308 0 0.974667 0.0705242 
235 1 -35.3966 -11.7278 0 0.285254 0.506896 
3815 1 -34.4396 -11.1021 0 0.331943 0.484414 
619 1 -33.4128 -11.7831 0 0.973148 0.117491 
2230 1 -31.3834 -11.921 0 0.309905 0.551375 
3031 1 -40.5419 -9.60233 0 0.35508 0.427922 
215 1 -39.5384 -10.3506 0 0.980405 0.0883436 
2249 1 -37.473 -10.3823 0 0.362874 0.439419 
735 1 -35.7478 -10.0598 0 0.355443 0.387761 
3578 1 -34.4566 -9.86665 0 0.975056 0.0212858 
3301 1 -32.6555 -10.7925 0 0.353342 0.429963 
3058 1 -33.2066 -9.80923 0 0.300416 0.508248 
1250 1 -31.3628 -10.691 0 0.972768 0.0938457 
3396 1 -40.6499 -8.32322 0 0.978337 0.0820865 
990 1 -39.4113 -8.32871 0 0.306558 0.551189 
1335 1 -38.8175 -9.28736 0 0.358172 0.417595 
3175 1 -37.5711 -9.10396 0 0.977941 0.0734902 
387 1 -36.3266 -9.10741 0 0.280011 0.542902 
93 1 -34.6124 -8.66169 0 0.294814 0.497377 
2459 1 -32.621 -8.72707 0 0.973508 0.10606 
2661 1 -31.5471 -9.45625 0 0.357175 0.420285 
523 1 -40.7342 -7.09617 0 0.309372 0.5613 
3540 1 -38.7545 -7.28716 0 0.97752 0.0856784 
3997 1 -37.6664 -7.88282 0 0.301497 0.56593 
2437 1 -36.6864 -7.30857 0 0.325318 0.461501 
1635 1 -35.6956 -8.04301 0 0.979502 0.0499571 
3111 1 -33.6494 -8.04737 0 0.32649 0.600201 
1194 1 -34.9479 -6.98475 0 0.347893 0.386111 
1782 1 -33.6488 -6.81809 0 0.972795 0.100366 
546 1 -31.8584 -7.74007 0 0.354309 0.425311 
275 1 -30.8488 -0.610814 0 0.334803 0.452328 
2356 1 -39.7495 -6.53806 0 0.351756 0.438804 
253 1 -38.0233 -6.22388 0 0.361398 0.405836 
2179 1 -36.7603 -6.04438 0 0.981977 0.0506653 
3260 1 -35.512 -6.02595 0 0.255759 0.533217 
3191 1 -33.8249 -5.60728 0 0.314708 0.469538 
328 1 -32.4046 -6.75338 0 0.309222 0.563944 
3627 1 -30.7488 -6.40416 0 0.36067 0.414699 
2537 1 -31.8202 -5.67039 0 0.973387 0.101541 
3624 1 -39.8452 -5.2594 0 0.97808 0.0753562 
344 1 -38.6069 -5.26408 0 0.288722 0.548687 
3875 1 -37.9616 -4.20433 0 0.98389 0.0545738 
1570 1 -36.8875 -4.82959 0 0.306713 0.482704 
1055 1 -35.9096 -4.24802 0 0.309189 0.487353 
776 1 -34.904 -4.94081 0 0.98026 0.0540649 
1464 1 -32.8582 -5.00326 0 0.317272 0.576254 
1032 1 -31.0632 -4.68567 0 0.342071 0.437478 
1915 1 -39.9405 -4.0372 0 0.308857 0.568233 
2646 1 -38.9554 -3.47268 0 0.316506 0.463637 
803 1 -37.2171 -3.15029 0 0.339137 0.409836 
3342 1 -35.929 -3.01073 0 0.980128 0.071037 
1861 1 -34.1391 -3.91876 0 0.354521 0.399087 
1272 1 -34.6915 -2.94228 0 0.306233 0.555012 
572 1 -32.8388 -3.77683 0 0.966973 0.118195 
1263 1 -31.6035 -3.69176 0 0.329813 0.575701 
3921 1 -40.2912 -2.37735 0 0.35579 0.4087 
476 1 -39.0234 -2.21373 0 0.98543 0.0369273 
3967 1 -37.7803 -2.18344 0 0.268526 0.536733 
106 1 -36.1102 -1.78563 0 0.348895 0.442942 
2407 1 -34.1179 -1.8501 0 0.975075 0.0983464 
1483 1 -33.0366 -2.55796 0 0.354173 0.429866 
538 1 -32.0867 -1.94788 0 0.316708 0.501147 
1149 1 -31.0313 -2.59967 0 0.971831 0.124555 
3735 1 -40.2218 -0.349236 0 0.993409 0.338442 
2786 1 -39.1636 -0.99575 0 0.312051 0.462419 
2257 1 -38.1958 -0.406494 0 0.314924 0.470175 
3104 1 -37.1806 -1.09308 0 0.983063 0.0857142 
3230 1 -36.4376 -0.0717424 0 0.334236 0.423175 
3804 1 -35.154 -1.18272 0 0.320119 0.477441 
2898 1 -32.0749 -0.721471 0 0.9694 0.108338 
3139 1 -33.3717 -0.849665 0 0.339546 0.424646 
2709 1 -39.5192 0.719476 0 0.29087 0.423637 
3188 1 -38.2351 0.817734 0 0.995054 0.0298385 
1334 1 -36.9837 0.910498 0 0.3167 0.429339 
833 1 -35.3231 1.26501 0 0.3792 0.377686 
1690 1 -35.1427 0.0478075 0 0.975044 0.0898028 
1817 1 -33.914 0.140222 0 0.324787 0.445829 
1408 1 -32.2772 0.498192 0 0.385209 0.365591 
1837 1 -33.3034 1.23948 0 0.982481 0.361384 
1383 1 -31.3064 1.11588 0 0.351566 0.487128 
493 1 -40.0703 1.68992 0 0.304467 0.400411 
239 1 -38.3586 2.03179 0 0.344403 0.422374 
1478 1 -37.3625 2.63678 0 0.368702 0.543968 
3484 1 -36.3288 2.00212 0 0.983792 0.359816 
1461 1 -34.3405 1.87859 0 0.355881 0.51362 
614 1 -32.6942 2.31681 0 0.29709 0.542057 
3795 1 -31.4899 2.27043 0 0.725757 0.354382 
1632 1 -40.3844 3.39227 0 0.382856 0.580841 
1006 1 -39.3445 2.75979 0 0.979162 0.341566 
625 1 -38.7463 3.85446 0 0.28716 0.545126 
537 1 -37.5428 3.79263 0 0.708448 0.346244 
2992 1 -35.7206 3.08744 0 0.292733 0.543736 
2546 1 -34.5173 3.03451 0 0.72002 0.352781 
1340 1 -33.1802 3.36946 0 0.668109 0.13709 
1892 1 -32.2348 4.06988 0 0.223467 0.512551 
3089 1 -31.1575 3.54625 0 0.753192 0.0370662 
3697 1 -40.5717 4.54763 0 0.69647 0.343245 
1203 1 -39.2281 4.89744 0 0.67342 0.12367 
497 1 -37.1948 5.06664 0 0.76747 0.017931 
3120 1 -36.2034 4.13633 0 0.672602 0.129088 
1654 1 -35.2504 4.83454 0 0.231177 0.51316 
3572 1 -34.1747 4.30769 0 0.761053 0.0267739 
3370 1 -33.5331 5.29437 0 0.267156 0.539093 
3663 1 -32.3445 5.23978 0 0.746505 0.051536 
829 1 -40.2192 5.81887 0 0.77618 0.0102007 
1243 1 -38.269 5.59505 0 0.239228 0.512713 
2199 1 -38.3903 6.75525 0 0.727977 0.0766545 
3705 1 -36.5545 6.05734 0 0.26602 0.538738 
2087 1 -35.3645 6.00013 0 0.738495 0.0617829 
1185 1 -34.0546 6.35672 0 0.706483 0.0979008 
3805 1 -32.0252 6.54038 0 0.726793 0.071886 
3223 1 -31.0402 5.59257 0 0.707212 0.0985788 
3608 1 -39.5821 6.81478 0 0.26476 0.53949 
3700 1 -40.0958 7.87107 0 0.704609 0.0962585 
3096 1 -38.0551 8.04834 0 0.747443 0.0500188 
2768 1 -37.0719 7.11665 0 0.704183 0.098083 
2687 1 -36.1129 7.80189 0 0.245928 0.52772 
1106 1 -35.0381 7.29792 0 0.735465 0.0622618 
3217 1 -33.1011 7.04263 0 0.260071 0.527499 
2346 1 -33.208 8.2204 0 0.73937 0.059661 
1370 1 -31.3762 7.522 0 0.252589 0.535181 
3551 1 -39.1292 8.55417 0 0.255388 0.526124 
3087 1 -37.4103 9.03929 0 0.25314 0.537455 
1957 1 -36.2257 8.97469 0 0.72978 0.0703994 
1560 1 -34.3908 8.28388 0 0.253975 0.536213 
550 1 -34.9224 9.34149 0 0.722204 0.0771017 
3968 1 -32.8875 9.53108 0 0.720025 0.0775319 
323 1 -31.912 8.58197 0 0.723502 0.0779899 
1492 1 -30.957 9.26633 0 0.252684 0.529068 
528 1 -40.4355 9.79239 0 0.243602 0.540046 
1125 1 -39.2493 9.72028 0 0.715162 0.090223 
2916 1 -37.9384 10.0941 0 0.724191 0.0736516 
2907 1 -36.9705 10.7757 0 0.255366 0.528941 
2647 1 -35.8966 10.2816 0 0.730679 0.0676289 
3475 1 -33.9617 10.0253 0 0.246979 0.52969 
1333 1 -32.2381 10.5163 0 0.254777 0.53489 
3046 1 -31.0595 10.4484 0 0.739757 0.0599687 
1159 1 -39.9778 11.5155 0 0.23047 0.517495 
759 1 -38.9086 11.0258 0 0.741082 0.0578283 
3617 1 -38.2646 12.0231 0 0.260543 0.537873 
2862 1 -37.0843 11.9482 0 0.714004 0.0872819 
1442 1 -35.2495 11.2721 0 0.252062 0.53618 
695 1 -34.0702 11.2033 0 0.727843 0.0710933 
1178 1 -32.7754 11.5744 0 0.733836 0.0659366 
2416 1 -30.7407 11.7663 0 0.711163 0.085966 
943 1 -31.8135 12.2565 0 0.255553 0.529823 
3438 1 -40.106 12.69 0 0.695444 0.104531 
2804 1 -38.7988 13.0741 0 0.745937 0.0354297 
2214 1 -36.7453 13.2651 0 0.729214 0.0724387 
2066 1 -35.7839 12.3274 0 0.737883 0.0606561 
3119 1 -34.8143 13.0072 0 0.250642 0.529294 
3184 1 -33.7421 12.5197 0 0.721407 0.0773178 
1466 1 -33.0937 13.5116 0 0.253717 0.535341 
2035 1 -31.9186 13.4384 0 0.72695 0.0730156 
1523 1 -39.7502 14.007 0 0.719116 0.124279 
1399 1 -37.9356 14.9261 0 0.694801 0.100291 
1808 1 -37.8138 13.7451 0 0.241275 0.518275 
1807 1 -36.0997 14.2634 0 0.261803 0.53659 
2579 1 -34.9247 14.1845 0 0.711595 0.0893515 
3101 1 -33.6325 14.5677 0 0.749011 0.0503866 
1491 1 -31.591 14.7619 0 0.713519 0.085116 
3463 1 -40.8548 15.6124 0 0.348361 0.432989 
329 1 -32.3294 19.814 0 0.779013 0.0061848 
2047 1 -39.7173 16.072 0 0.964026 0.0523485 
3039 1 -39.0837 15.0093 0 0.255457 0.550704 
2815 1 -36.6397 15.3154 0 0.759674 0.0220921 
3332 1 -37.582 16.255 0 0.706069 0.317152 
1781 1 -35.6531 15.984 0 0.248074 0.517159 
2642 1 -34.5861 15.5108 0 0.719701 0.0835061 
2783 1 -32.6615 15.2458 0 0.254615 0.528877 
1314 1 -30.941 15.754 0 0.255123 0.534735 
1590 1 -40.2589 17.2635 0 0.365365 0.368437 
3289 1 -38.6714 16.6925 0 0.326331 0.594086 
1079 1 -36.9132 17.2587 0 0.259987 0.548565 
1247 1 -35.7711 17.1702 0 0.692906 0.101379 
32 1 -33.9395 16.5105 0 0.263995 0.535395 
1788 1 -34.4847 17.5636 0 0.771274 0.01059 
3710 1 -32.7689 16.427 0 0.710452 0.0918148 
3830 1 -31.4828 16.8114 0 0.756953 0.0427778 
3822 1 -39.7968 18.4451 0 0.977759 0.0272342 
880 1 -38.6809 17.8616 0 0.336372 0.461373 
3662 1 -37.5569 18.3205 0 0.958735 0.0609612 
1602 1 -36.5077 18.9394 0 0.325723 0.611419 
1797 1 -35.4197 18.5097 0 0.693591 0.318995 
1653 1 -33.4965 18.2297 0 0.252767 0.516315 
1136 1 -32.4305 17.7601 0 0.711838 0.0920518 
3201 1 -31.7822 18.7596 0 0.265882 0.534614 
3194 1 -33.611 19.419 0 0.689936 0.105328 
2821 1 -38.0731 19.5303 0 0.388675 0.3399 
1305 1 -39.1855 19.5239 0 0.275083 0.512184 
755 1 -36.5136 20.1147 0 0.328189 0.484547 
1202 1 -34.7491 19.514 0 0.266014 0.545787 
838 1 -40.8425 14.4515 0 0.327639 0.57422 
3138 1 -39.7735 20.6065 0 0.978473 0.0622469 
2591 1 -40.3228 21.7781 0 0.369508 0.391716 
2308 1 -38.7137 21.2484 0 0.297126 0.582767 
3244 1 -37.6076 20.7235 0 0.974287 0.0136219 
1530 1 -35.3997 20.5756 0 0.954411 0.0687511 
2217 1 -34.3443 21.1909 0 0.325656 0.622026 
733 1 -33.2581 20.7649 0 0.685875 0.32091 
3947 1 -31.4487 21.668 0 0.686165 0.109896 
2490 1 -31.3383 20.4767 0 0.256171 0.515862 
1277 1 -39.8687 22.9582 0 0.975982 0.0680718 
397 1 -38.727 22.3865 0 0.327438 0.455927 
3015 1 -37.0018 21.8031 0 0.263591 0.494918 
183 1 -37.5946 22.8841 0 0.979852 0.0209581 
3440 1 -35.8934 21.7972 0 0.399097 0.317113 
1970 1 -35.4246 22.9971 0 0.970349 0.0262748 
3549 1 -34.3449 22.3702 0 0.324457 0.497717 
1158 1 -32.5839 21.7689 0 0.269557 0.543289 
2382 1 -33.235 22.8313 0 0.951584 0.0713503 
3405 1 -31.0911 23.0177 0 0.682172 0.322866 
1071 1 -39.2549 24.0295 0 0.286709 0.528524 
585 1 -38.1381 24.0568 0 0.371613 0.387071 
1785 1 -36.5299 23.5203 0 0.295027 0.586311 
2027 1 -34.8196 24.0753 0 0.256572 0.484046 
2837 1 -33.7132 24.0595 0 0.404758 0.302501 
1388 1 -32.1745 23.444 0 0.325681 0.626524 
1799 1 -39.8549 25.1185 0 0.963713 0.019063 
3693 1 -38.7903 25.7583 0 0.315197 0.626038 
2806 1 -37.6813 25.2374 0 0.976386 0.0603768 
3521 1 -36.5447 24.6599 0 0.328068 0.458249 
3497 1 -35.4132 25.1567 0 0.980446 0.015859 
2963 1 -34.3448 25.7876 0 0.294143 0.58821 
3224 1 -33.2422 25.2629 0 0.96733 0.0329604 
3458 1 -32.17 24.6255 0 0.323043 0.503734 
3077 1 -31.0592 25.0844 0 0.950267 0.0706845 
3635 1 -40.3314 26.3401 0 0.408928 0.313304 
1386 1 -38.7742 26.9113 0 0.302633 0.621412 
3885 1 -37.0683 26.3091 0 0.283305 0.527653 
459 1 -35.9515 26.3306 0 0.372274 0.385032 
2248 1 -34.3576 26.9279 0 0.328505 0.459424 
2896 1 -32.6331 26.3387 0 0.275689 0.478377 
3541 1 -31.5281 26.3155 0 0.405759 0.294706 
3172 1 -39.8488 27.5513 0 0.968367 0.0177692 
3205 1 -38.1426 28.6174 0 0.406253 0.318342 
520 1 -37.6664 27.3988 0 0.966039 0.0153863 
282 1 -36.5972 28.0331 0 0.313679 0.623883 
3946 1 -35.4894 27.5105 0 0.976876 0.0560409 
238 1 -33.2251 27.4212 0 0.980495 0.0140824 
3982 1 -32.1531 28.0472 0 0.293616 0.590128 
1526 1 -31.0534 27.5219 0 0.965565 0.0355487 
41 1 -39.8478 29.7141 0 0.982402 0.0418244 
2391 1 -39.2443 28.6324 0 0.273276 0.477175 
2187 1 -37.6561 29.8232 0 0.971138 0.0249492 
2033 1 -36.58 29.1847 0 0.302937 0.617387 
1873 1 -35.4699 29.6721 0 0.968927 0.011144 
3245 1 -34.8742 28.5819 0 0.27999 0.527239 
1359 1 -33.7577 28.5971 0 0.372543 0.383166 
3618 1 -33.2878 29.7775 0 0.977648 0.0494831 
1261 1 -32.1638 29.1888 0 0.32782 0.46328 
3059 1 -31.0314 29.6794 0 0.979925 0.0131379 
712 1 -40.3584 30.8805 0 0.409669 0.351973 
205 1 -38.7589 30.336 0 0.297437 0.588495 
2498 1 -37.0514 30.904 0 0.27604 0.483201 
2201 1 -35.9459 30.8855 0 0.403549 0.324488 
1578 1 -34.3941 30.2996 0 0.310641 0.620098 
1121 1 -32.6705 30.8502 0 0.274292 0.524514 
1521 1 -31.5552 30.8585 0 0.373989 0.377967 
3149 1 -39.9181 32.0553 0 0.974398 0.364325 
407 1 -38.7733 31.4766 0 0.323303 0.438813 
648 1 -37.6406 31.9866 0 0.988106 0.0181049 
1115 1 -36.5543 32.6086 0 0.288388 0.561115 
2023 1 -35.4543 32.0863 0 0.974592 0.0397623 
499 1 -34.3786 31.4499 0 0.304681 0.509258 
1201 1 -33.2665 31.9388 0 0.972522 0.00755793 
2017 1 -32.1808 32.5577 0 0.304146 0.502408 
110 1 -31.0745 32.0437 0 0.978625 0.0334225 
1684 1 -39.3434 33.1229 0 0.339712 0.54611 
2628 1 -38.1881 33.125 0 0.393656 0.39301 
1760 1 -36.5802 33.7399 0 0.322743 0.4024 
2389 1 -34.8526 33.1705 0 0.284682 0.487389 
2869 1 -33.7438 33.1447 0 0.383175 0.329799 
3844 1 -32.1762 33.7062 0 0.31016 0.50347 
3582 1 -39.8225 34.2 0 0.725396 0.111125 
3256 1 -40.7831 35.1201 0 0.745226 0.0394019 
1856 1 -38.8362 34.8868 0 0.269445 0.551676 
1862 1 -37.7545 34.2836 0 0.971772 0.356482 
3918 1 -37.1774 35.3512 0 0.323407 0.573602 
612 1 -35.429 34.2534 0 0.989577 0.0220566 
1279 1 -36.0136 35.3601 0 0.350787 0.434168 
2570 1 -34.3431 34.8727 0 0.278032 0.533093 
1925 1 -33.2468 34.3431 0 0.976884 0.062217 
3937 1 -32.6517 35.4332 0 0.298091 0.488719 
3461 1 -31.0653 34.2042 0 0.976163 0.033703 
2267 1 -31.5371 35.3968 0 0.373789 0.336497 
2448 1 -40.1419 36.1252 0 0.234645 0.515568 
1601 1 -38.9615 36.034 0 0.691064 0.109598 
1070 1 -37.6457 36.4281 0 0.709483 0.12881 
164 1 -35.58 36.5031 0 0.967476 0.0838083 
2742 1 -34.3832 35.9955 0 0.342313 0.365584 
2165 1 -33.2141 36.5169 0 0.987359 0.341536 
2763 1 -31.0311 36.588 0 0.980014 0.336817 
789 1 -39.6788 37.8523 0 0.260859 0.537741 
2601 1 -40.6583 37.1797 0 0.738751 0.0617606 
191 1 -38.6123 37.3428 0 0.757991 0.0234794 
113 1 -36.6595 37.1186 0 0.271628 0.550153 
691 1 -35.0036 37.5763 0 0.3252 0.595605 
826 1 -33.8317 37.5894 0 0.333421 0.471481 
1241 1 -32.1246 37.1265 0 0.268678 0.502176 
3248 1 -39.7886 39.0269 0 0.710452 0.0911865 
393 1 -38.4773 39.4027 0 0.726447 0.0764665 
2178 1 -37.9728 38.3478 0 0.2438 0.51517 
1481 1 -36.7871 38.2589 0 0.685964 0.111777 
1270 1 -35.4565 38.6517 0 0.693404 0.32873 
265 1 -34.4651 39.3441 0 0.281746 0.545352 
257 1 -32.1776 38.2432 0 0.360207 0.329356 
708 1 -33.3895 38.717 0 0.961787 0.0876748 
1504 1 -30.9951 38.7648 0 0.981674 0.339155 
611 1 -39.4411 40.3344 0 0.743461 0.0549916 
1959 1 -40.5097 40.8415 0 0.253239 0.535499 
932 1 -37.495 40.0744 0 0.263374 0.537047 
1498 1 -36.4281 39.5554 0 0.775136 0.00577849 
392 1 -35.791 40.5619 0 0.252673 0.512073 
769 1 -34.5997 40.4761 0 0.679378 0.120198 
2108 1 -32.8112 39.7983 0 0.328553 0.60955 
1056 1 -31.6334 39.819 0 0.323728 0.492381 
382 1 -29.4212 -39.6422 0 0.305335 0.494586 
719 1 -30.6017 -39.6798 0 0.33885 0.61526 
312 1 -28.782 -40.6943 0 0.981431 0.0685291 
360 1 -27.703 -40.0882 0 0.278747 0.475134 
3350 1 -26.6022 -40.6076 0 0.977228 0.0206765 
379 1 -25.9861 -39.5444 0 0.305597 0.403142 
57 1 -24.8386 -39.4749 0 0.622089 0.166798 
1301 1 -23.4918 -39.8682 0 0.685184 0.123767 
1424 1 -24.4462 -40.7731 0 0.757699 0.119723 
1611 1 -22.4932 -40.5011 0 0.308529 0.518513 
2999 1 -21.4444 -39.9394 0 0.912795 0.147083 
705 1 -28.9591 -38.5195 0 0.958557 0.0249917 
326 1 -27.7471 -38.9585 0 0.421596 0.287807 
3966 1 -26.5897 -38.4843 0 0.908898 0.409647 
3880 1 -24.5881 -38.313 0 0.511603 0.485216 
457 1 -23.0929 -38.7419 0 0.446788 0.448426 
1257 1 -21.9312 -38.715 0 0.485742 0.261535 
2412 1 -20.4559 -39.1482 0 0.519165 0.493159 
2735 1 -30.0419 -37.9098 0 0.285931 0.431622 
3759 1 -30.1948 -36.8012 0 0.708609 0.126912 
3708 1 -28.3609 -37.444 0 0.374901 0.580497 
1759 1 -27.1563 -37.3412 0 0.460557 0.380113 
3803 1 -25.6188 -37.6949 0 0.457332 0.472034 
3281 1 -23.6031 -37.5407 0 0.931995 0.366858 
3249 1 -22.5596 -36.9418 0 0.291043 0.455237 
1803 1 -21.5637 -37.5755 0 0.670854 0.208868 
2167 1 -29.8788 -35.5582 0 0.736892 0.48875 
3888 1 -28.8192 -36.4033 0 0.579797 0.358736 
732 1 -27.8729 -35.5866 0 0.525441 0.441891 
1561 1 -26.857 -36.2031 0 0.564449 0.263335 
324 1 -25.4309 -36.5606 0 0.642871 0.149944 
3586 1 -24.2311 -36.4869 0 0.297033 0.50752 
353 1 -23.7822 -35.4222 0 0.704301 0.111096 
3451 1 -22.4523 -35.773 0 0.706339 0.100859 
3417 1 -20.6098 -36.6672 0 0.778136 0.0482545 
2776 1 -21.2717 -35.6694 0 0.239852 0.524788 
723 1 -29.0424 -34.6462 0 0.514205 0.171939 
1711 1 -27.7235 -34.3592 0 0.855923 0.0832784 
1766 1 -26.4955 -34.3804 0 0.336475 0.529081 
1336 1 -25.8509 -35.3383 0 0.851347 0.0329536 
1877 1 -24.7701 -34.7664 0 0.248403 0.506576 
3851 1 -22.8237 -34.4775 0 0.749529 0.0577195 
3969 1 -20.7715 -34.6082 0 0.73695 0.0640432 
2809 1 -29.6227 -33.6839 0 0.27216 0.413839 
1448 1 -27.9233 -33.1877 0 0.329274 0.499116 
507 1 -25.9824 -33.2848 0 0.682107 0.325391 
3842 1 -24.6854 -33.5924 0 0.770166 0.0330481 
262 1 -23.4979 -33.5058 0 0.237877 0.522885 
3420 1 -21.7608 -33.9514 0 0.240386 0.528012 
1473 1 -21.674 -32.7705 0 0.744921 0.0650336 
1868 1 -30.0094 -31.9269 0 0.313059 0.576767 
2957 1 -29.0116 -32.6147 0 0.965354 0.0261157 
114 1 -28.2183 -31.5737 0 0.391061 0.292234 
980 1 -26.9036 -32.5693 0 0.327875 0.629702 
1187 1 -26.9178 -31.3497 0 0.949282 0.0709051 
36 1 -25.0068 -32.29 0 0.694186 0.095076 
207 1 -25.672 -31.3615 0 0.261579 0.545466 
175 1 -23.93 -31.7703 0 0.253612 0.516764 
1111 1 -22.9738 -32.4398 0 0.723094 0.0797799 
1265 1 -22.0138 -31.4615 0 0.70901 0.09102 
1639 1 -20.4951 -32.6786 0 0.247408 0.528442 
3085 1 -30.0428 -30.6855 0 0.990205 0.00625423 
3917 1 -28.8045 -30.6398 0 0.283548 0.474949 
1555 1 -27.0958 -30.1605 0 0.326818 0.498992 
3006 1 -25.1579 -30.2666 0 0.697752 0.327435 
1665 1 -23.8689 -30.5782 0 0.770268 0.0171064 
1887 1 -22.6892 -30.4972 0 0.263978 0.534314 
762 1 -20.949 -30.9476 0 0.247993 0.529301 
1538 1 -30.1765 -29.4552 0 0.325435 0.452934 
3712 1 -29.1878 -28.8873 0 0.293258 0.566279 
1167 1 -28.1793 -29.5626 0 0.976649 0.030783 
1044 1 -26.0848 -29.5565 0 0.325642 0.60948 
1092 1 -24.1972 -29.2674 0 0.685933 0.108641 
19 1 -22.1646 -29.4259 0 0.732012 0.0745493 
1278 1 -23.123 -28.7575 0 0.244947 0.516466 
2471 1 -20.8722 -29.7609 0 0.744195 0.0579405 
3133 1 -30.4878 -27.7504 0 0.356479 0.416746 
1606 1 -29.2233 -27.6435 0 0.988015 0.0126292 
3991 1 -27.993 -27.581 0 0.262762 0.513225 
2831 1 -27.4043 -28.5256 0 0.370498 0.333618 
787 1 -26.1088 -28.3352 0 0.959204 0.0732391 
256 1 -24.8671 -28.3361 0 0.263151 0.549947 
675 1 -23.0657 -27.5637 0 0.759942 0.0241285 
954 1 -21.8891 -27.4782 0 0.263638 0.535473 
2028 1 -21.2127 -28.4448 0 0.702466 0.0970919 
3339 1 -29.3872 -26.4039 0 0.3374 0.433209 
370 1 -27.3826 -26.5006 0 0.978349 0.0161402 
3063 1 -26.2997 -27.1355 0 0.33639 0.467313 
3159 1 -25.294 -26.5384 0 0.323302 0.598423 
125 1 -24.3552 -27.2437 0 0.709136 0.128827 
2540 1 -23.4035 -26.2494 0 0.689386 0.107531 
3994 1 -21.3661 -26.4072 0 0.739008 0.0656752 
3439 1 -30.4555 -25.7125 0 0.985676 0.0171728 
3334 1 -29.7005 -24.7066 0 0.361381 0.413341 
142 1 -28.4086 -25.8333 0 0.288809 0.568285 
3492 1 -26.6123 -25.4846 0 0.369068 0.358516 
3736 1 -25.3136 -25.3202 0 0.96376 0.0663404 
3300 1 -24.074 -25.3142 0 0.261845 0.550126 
3984 1 -22.3307 -25.7425 0 0.239266 0.516819 
3107 1 -22.2716 -24.5486 0 0.753385 0.0322119 
432 1 -30.2704 -23.7327 0 0.293811 0.548874 
277 1 -28.4217 -24.5924 0 0.983192 0.0379455 
409 1 -28.5894 -23.358 0 0.358728 0.430886 
3892 1 -27.191 -24.5286 0 0.273058 0.526244 
725 1 -26.5824 -23.4472 0 0.979941 0.0285562 
2203 1 -25.5087 -24.1135 0 0.34438 0.445841 
2887 1 -24.5052 -23.5217 0 0.323328 0.584103 
920 1 -23.5605 -24.2239 0 0.716883 0.128268 
2848 1 -22.6141 -23.2311 0 0.690396 0.107222 
1415 1 -21.0973 -24.4589 0 0.264138 0.534787 
1542 1 -20.5739 -23.3885 0 0.74566 0.0577691 
3516 1 -29.6534 -22.6542 0 0.983749 0.0392247 
1014 1 -27.6136 -22.7821 0 0.292598 0.56356 
163 1 -25.8164 -22.4423 0 0.363016 0.381581 
3995 1 -24.5195 -22.3049 0 0.967049 0.0570682 
2009 1 -23.2842 -22.2922 0 0.26058 0.550886 
1391 1 -21.5426 -22.7266 0 0.235034 0.517009 
915 1 -29.4578 -20.6701 0 0.303754 0.556394 
2352 1 -28.8969 -21.6514 0 0.355401 0.420317 
3536 1 -27.6155 -21.5446 0 0.980469 0.0530306 
1822 1 -26.3867 -21.4745 0 0.286008 0.543304 
2222 1 -24.7179 -21.0881 0 0.38264 0.419575 
2328 1 -23.7177 -20.5028 0 0.32349 0.565687 
3528 1 -22.7683 -21.2027 0 0.727062 0.130689 
502 1 -21.4827 -21.5316 0 0.746592 0.0410104 
2929 1 -28.8479 -19.5878 0 0.982564 0.0552844 
3846 1 -27.7888 -20.3074 0 0.364076 0.417335 
131 1 -26.8184 -19.7303 0 0.292143 0.552575 
247 1 -25.0251 -19.393 0 0.351607 0.408876 
1931 1 -25.78 -20.3909 0 0.981036 0.0477355 
3161 1 -23.7343 -19.2864 0 0.971046 0.356784 
3970 1 -22.5026 -19.2657 0 0.262269 0.551941 
855 1 -21.8308 -20.2082 0 0.687152 0.112457 
3080 1 -20.7614 -19.7081 0 0.229593 0.516842 
20 1 -29.8888 -18.9274 0 0.28804 0.519443 
1193 1 -28.0999 -18.5866 0 0.348857 0.435559 
1798 1 -26.8207 -18.4943 0 0.980057 0.0523532 
2089 1 -25.594 -18.4158 0 0.294034 0.563793 
1691 1 -23.935 -18.0574 0 0.391559 0.393264 
34 1 -21.984 -18.1777 0 0.736848 0.133991 
3496 1 -20.7008 -18.512 0 0.739329 0.048879 
1097 1 -29.8846 -17.6919 0 0.977145 0.0343666 
3661 1 -30.0636 -16.4281 0 0.379761 0.364163 
2126 1 -28.6628 -17.602 0 0.306582 0.568359 
853 1 -28.0582 -16.5188 0 0.980294 0.064341 
3002 1 -26.9998 -17.2516 0 0.368159 0.404494 
3352 1 -26.0339 -16.6752 0 0.289959 0.545102 
2573 1 -24.988 -17.3317 0 0.979637 0.0622884 
979 1 -22.938 -17.4796 0 0.322534 0.548767 
395 1 -21.0548 -17.1828 0 0.684626 0.118347 
3564 1 -29.1036 -15.861 0 0.288531 0.519435 
1557 1 -27.3131 -15.5228 0 0.347393 0.443867 
3389 1 -26.0342 -15.4396 0 0.979362 0.0536487 
1293 1 -24.8086 -15.357 0 0.298483 0.578611 
2853 1 -24.2415 -16.3418 0 0.329334 0.431247 
261 1 -22.9561 -16.2626 0 0.97341 0.360171 
1434 1 -21.7274 -16.2363 0 0.264835 0.552421 
3057 1 -21.2041 -15.1503 0 0.746615 0.329641 
1031 1 -30.3719 -14.6687 0 0.308139 0.476969 
3863 1 -29.0994 -14.6259 0 0.977026 0.0365947 
3297 1 -27.8763 -14.5363 0 0.30664 0.573446 